2decomp_fft
CFL3D
CMCL-acor
CMCL-fmmlib2d-1.2
CMCL-fmmlib3d-1.2
CMCL-stfmmlib3d-1.2
CMCL-tgf
CMCL-triasymq-1.6
CTSM
CaNS
Castro
CompDam_DGD
DAMASK
DelaunaySparse
Elk
FATODE
FEconv
FKB
FLAP
FLINT
FMM3D
FMS
FOODIE
FiNeR
Fortran-Astrodynamics-Toolkit
FortranPatterns
Futility
GALAHAD
GEOS-ESM-AeroApps
GEOS-ESM-CICE
GEOS-ESM-FKB
GEOS-ESM-FMS
GEOS-ESM-FVdycoreCubed_GridComp
GEOS-ESM-GEOS_OceanGridComp
GEOS-ESM-GEOSadas
GEOS-ESM-GEOSagcmPert_GridComp
GEOS-ESM-GEOSana_GridComp
GEOS-ESM-GEOSchem_GridComp
GEOS-ESM-GEOSctm
GEOS-ESM-GEOSgcm_GridComp
GEOS-ESM-GEOSgcs_GridComp
GEOS-ESM-GEOSldas
GEOS-ESM-GEOSradiation_GridComp
GEOS-ESM-GFDL_atmos_cubed_sphere
GEOS-ESM-GMAO_Shared
GEOS-ESM-GOCART
GEOS-ESM-GSI
GEOS-ESM-GSIbec
GEOS-ESM-GrITAS
GEOS-ESM-HEMCO
GEOS-ESM-Icepack
GEOS-ESM-MAPL
GEOS-ESM-MITgcm
GEOS-ESM-MOM5
GEOS-ESM-MOM6
GEOS-ESM-NCEP_Shared
GEOS-ESM-Ocean-LETKF
GEOS-ESM-QuickChem
GEOS-ESM-RadApp
GEOS-ESM-SIS2
GEOS-ESM-UMD_Etc
GEOS-ESM-WW3
GEOS-ESM-ccpp-physics
GEOS-ESM-g5pert
GEOS-ESM-geos-chem
GEOS-ESM-rte-rrtmgp
GEOS-ESM-umwm
GISS-Model-E
LATTE
LLL-GEARBI
LLL-KRYSI
LLL-LSODE
LLL-ODEPACK-double
LLL-ODEPACK-single
LLL-VODE
LLL-VODPK
LaGriT
MESA
MITgcm
MPAS-Model
M_CLI
M_draw
M_history
M_io
M_process
M_strings
M_system
M_time
NASTRAN-93
NASTRAN-95
NJOY2016
NPY-for-Fortran
Nek5000
NumDiff
OFF
OpenBLAS
OpenCoarrays
OpenFFT
OpenMolcas
OpenSWPC
PCHIP
PENF
PROPACK
PoisFFT
QCxMS
QUICK
QUIP
SHTOOLS
SLICOT-Reference
SNAP
SNaC
SciFortran
SeisSol
StringiFor
Tracmass
VTKFortran
VTMOP
WRF
abinit
adflow
aenet
aotus
arpack-ng
arrayfire-fortran
astro-fortran
atomsk
bandup
bigdft-suite
blocktran
bspline-fortran
caf-testsuite
camfort
cantera
clfortran
config_fortran
convert_FORTRAN_case
coretran
cp2k
crest
dalton
datetime-fortran
dbcsr
ddPCM
ddeabm
dftatom
dftbplus
dftd4
dl-poly
dop853
eT
easy_plplot
elmerfem
elpa
elsi_interface
erloff
f90wrap
fdict
fds
feq-parse
fgsl
flexi
flibcpp
flook
fluidity
fmm2d
focal
ford
forpy
fortjson
fortnet
fortran-csv-module
fortran-curl
fortran-error-handler
fortran-lua53
fortran-motif
fortran-pcre2
fortran-sdl2
fortran-sqlite3
fortran-tcl86
fortran-unix
fortran-utils
fortran-xlib
fortran-zlib
fortran2018-examples
fortrancallgraph
fortranlib
fortyxima
fox
fparser
fpm
fprettify
freeCappuccino
ftl
functional-fortran
fycollections
fypp
fytest
gFTL
gFTL-shared
gemini3d
general-purpose-fortran
gtk-fortran
h5fortran
hande
hfsolver
hipfort
icar
illustrate
incompact3d
iso_varying_string
json-fortran
jsonff
kdtree2
lapack
lesgo
libmbd
libnegf
librsb
lookup_table_fortran
lsdalton
maptran3d
mpifx
nc4fortran
netcdf-fortran
neural-fortran
nlesolver-fortran
node-fortran
node.fortran
ntpoly
numerical-methods-fortran
nwchem
octopus
ogpf
pFUnit
pFlogger
paramonte
parff
pencil-code
psblas3
pyplot-fortran
q-e
qcontainers
qcxms
qmd-progress
qnstop
quadpack
quaff
regridpack
rng_fortran
roots-fortran
rpn-calc-fortran
scalapackfx
serialbox
shroud
siesta
slsqp
specfem3d
sqliteff
stdlib
stdlib_os
strff
swig
tapenade
tcp-client-server
tinker
toml-f
tracmass
truchas
tsunami
vegetables
wannier90
whizard-3.1.0
xtb
yaFyaml
