CFL3D
CTSM
CaNS
Castro
CompDam_DGD
DAMASK
DelaunaySparse
FATODE
FEconv
FKB
FLAP
FLINT
FMM3D
FMS
FOODIE
FiNeR
Fortran-Astrodynamics-Toolkit
FortranPatterns
Futility
GALAHAD
LATTE
LaGriT
MITgcm
MOM6
MPAS-Model
M_CLI
M_draw
M_history
M_io
M_process
M_strings
M_system
M_time
NASTRAN-93
NASTRAN-95
NJOY2016
NPY-for-Fortran
Nek5000
NumDiff
OFF
OpenBLAS
OpenCoarrays
OpenMolcas
OpenSWPC
PCHIP
PENF
PoisFFT
QCxMS
QUICK
QUIP
SHTOOLS
SLICOT-Reference
SNAP
SNaC
SciFortran
SeisSol
StringiFor
Tracmass
VTKFortran
VTMOP
WRF
abinit
adflow
aenet
arpack-ng
arrayfire-fortran
astro-fortran
atomsk
bandup
bigdft-suite
blocktran
bspline-fortran
caf-testsuite
camfort
cantera
clfortran
config_fortran
convert_FORTRAN_case
coretran
cp2k
crest
dalton
datetime-fortran
dbcsr
ddPCM
ddeabm
dftatom
dftbplus
dftd4
dl-poly
dop853
eT
easy_plplot
elmerfem
elpa
elsi_interface
erloff
f90wrap
fdict
fds
feq-parse
fgsl
flexi
flibcpp
flook
fluidity
fmm2d
focal
ford
forpy
fortjson
fortran-csv-module
fortran-curl
fortran-error-handler
fortran-lua53
fortran-motif
fortran-pcre2
fortran-sdl2
fortran-sqlite3
fortran-tcl86
fortran-unix
fortran-utils
fortran-xlib
fortran-zlib
fortran2018-examples
fortrancallgraph
fortranlib
fox
fparser
fpm
fprettify
freeCappuccino
ftl
functional-fortran
fypp
gFTL-shared
gFTL
gemini3d
general-purpose-fortran
gtk-fortran
h5fortran
hande
hipfort
icar
illustrate
incompact3d
iso_varying_string
json-fortran
jsonff
kdtree2
lapack
lesgo
libmbd
libnegf
lookup_table_fortran
lsdalton
maptran3d
mesa
mpifx
nc4fortran
netcdf-fortran
neural-fortran
nlesolver-fortran
node-fortran
node.fortran
ntpoly
numerical-methods-fortran
nwchem
octopus
ogpf
pFUnit
pFlogger
paramonte
parff
pencil-code
psblas3
pyplot-fortran
q-e
qcontainers
qmd-progress
qnstop
quadpack
quaff
regridpack
rng_fortran
roots-fortran
rpn-calc-fortran
scalapackfx
serialbox
shroud
siesta
slsqp
specfem3d
sqliteff
stdlib
stdlib_os
strff
swig
tapenade
tcp-client-server
tinker
toml-f
truchas
tsunami
vegetables
wannier90
whizard-public
xtb
yaFyaml
